# vtk DataFile Version 4.2
File created by MooNMD, Computational Time : 0.000000000, Date & Time: Mon May  8 10:41:23 2023
ASCII
DATASET UNSTRUCTURED_GRID
POINTS 1089 float
0.406250000 0.781250000 0.000000000
0.406250000 0.812500000 0.000000000
0.406250000 0.843750000 0.000000000
0.437500000 0.843750000 0.000000000
0.468750000 0.843750000 0.000000000
0.437500000 0.781250000 0.000000000
0.468750000 0.812500000 0.000000000
0.468750000 0.781250000 0.000000000
0.281250000 0.843750000 0.000000000
0.375000000 0.843750000 0.000000000
0.312500000 0.843750000 0.000000000
0.343750000 0.843750000 0.000000000
0.343750000 0.812500000 0.000000000
0.375000000 0.781250000 0.000000000
0.343750000 0.781250000 0.000000000
0.281250000 0.812500000 0.000000000
0.312500000 0.781250000 0.000000000
0.281250000 0.781250000 0.000000000
0.343750000 1.000000000 0.000000000
0.343750000 0.968750000 0.000000000
0.343750000 0.875000000 0.000000000
0.343750000 0.937500000 0.000000000
0.343750000 0.906250000 0.000000000
0.312500000 0.906250000 0.000000000
0.281250000 0.875000000 0.000000000
0.281250000 0.906250000 0.000000000
0.281250000 1.000000000 0.000000000
0.312500000 0.968750000 0.000000000
0.281250000 0.937500000 0.000000000
0.281250000 0.968750000 0.000000000
0.468750000 0.875000000 0.000000000
0.468750000 0.906250000 0.000000000
0.375000000 0.906250000 0.000000000
0.437500000 0.906250000 0.000000000
0.406250000 0.875000000 0.000000000
0.406250000 0.906250000 0.000000000
0.406250000 1.000000000 0.000000000
0.406250000 0.937500000 0.000000000
0.375000000 0.968750000 0.000000000
0.406250000 0.968750000 0.000000000
0.468750000 0.937500000 0.000000000
0.437500000 0.968750000 0.000000000
0.468750000 1.000000000 0.000000000
0.468750000 0.968750000 0.000000000
0.281250000 0.593750000 0.000000000
0.312500000 0.593750000 0.000000000
0.343750000 0.593750000 0.000000000
0.343750000 0.562500000 0.000000000
0.343750000 0.531250000 0.000000000
0.281250000 0.562500000 0.000000000
0.312500000 0.531250000 0.000000000
0.281250000 0.531250000 0.000000000
0.343750000 0.750000000 0.000000000
0.343750000 0.718750000 0.000000000
0.343750000 0.625000000 0.000000000
0.343750000 0.687500000 0.000000000
0.343750000 0.656250000 0.000000000
0.312500000 0.656250000 0.000000000
0.281250000 0.625000000 0.000000000
0.281250000 0.656250000 0.000000000
0.281250000 0.750000000 0.000000000
0.312500000 0.718750000 0.000000000
0.281250000 0.687500000 0.000000000
0.281250000 0.718750000 0.000000000
0.468750000 0.656250000 0.000000000
0.375000000 0.656250000 0.000000000
0.437500000 0.656250000 0.000000000
0.406250000 0.656250000 0.000000000
0.406250000 0.750000000 0.000000000
0.406250000 0.687500000 0.000000000
0.375000000 0.718750000 0.000000000
0.406250000 0.718750000 0.000000000
0.468750000 0.687500000 0.000000000
0.437500000 0.718750000 0.000000000
0.468750000 0.750000000 0.000000000
0.468750000 0.718750000 0.000000000
0.375000000 0.531250000 0.000000000
0.406250000 0.531250000 0.000000000
0.406250000 0.625000000 0.000000000
0.406250000 0.562500000 0.000000000
0.375000000 0.593750000 0.000000000
0.406250000 0.593750000 0.000000000
0.437500000 0.593750000 0.000000000
0.468750000 0.625000000 0.000000000
0.468750000 0.593750000 0.000000000
0.437500000 0.531250000 0.000000000
0.468750000 0.562500000 0.000000000
0.468750000 0.531250000 0.000000000
0.093750000 0.718750000 0.000000000
0.093750000 0.687500000 0.000000000
0.093750000 0.656250000 0.000000000
0.000000000 0.656250000 0.000000000
0.062500000 0.656250000 0.000000000
0.031250000 0.656250000 0.000000000
0.062500000 0.718750000 0.000000000
0.031250000 0.687500000 0.000000000
0.000000000 0.718750000 0.000000000
0.031250000 0.718750000 0.000000000
0.250000000 0.656250000 0.000000000
0.218750000 0.656250000 0.000000000
0.125000000 0.656250000 0.000000000
0.187500000 0.656250000 0.000000000
0.156250000 0.656250000 0.000000000
0.156250000 0.687500000 0.000000000
0.125000000 0.718750000 0.000000000
0.156250000 0.718750000 0.000000000
0.250000000 0.718750000 0.000000000
0.218750000 0.687500000 0.000000000
0.187500000 0.718750000 0.000000000
0.218750000 0.718750000 0.000000000
0.156250000 0.531250000 0.000000000
0.156250000 0.625000000 0.000000000
0.156250000 0.562500000 0.000000000
0.156250000 0.593750000 0.000000000
0.250000000 0.593750000 0.000000000
0.187500000 0.593750000 0.000000000
0.218750000 0.625000000 0.000000000
0.218750000 0.593750000 0.000000000
0.187500000 0.531250000 0.000000000
0.218750000 0.562500000 0.000000000
0.250000000 0.531250000 0.000000000
0.218750000 0.531250000 0.000000000
0.031250000 0.625000000 0.000000000
0.000000000 0.593750000 0.000000000
0.031250000 0.593750000 0.000000000
0.125000000 0.593750000 0.000000000
0.062500000 0.593750000 0.000000000
0.093750000 0.625000000 0.000000000
0.093750000 0.593750000 0.000000000
0.093750000 0.562500000 0.000000000
0.125000000 0.531250000 0.000000000
0.093750000 0.531250000 0.000000000
0.000000000 0.531250000 0.000000000
0.031250000 0.562500000 0.000000000
0.062500000 0.531250000 0.000000000
0.031250000 0.531250000 0.000000000
0.250000000 0.906250000 0.000000000
0.218750000 0.906250000 0.000000000
0.187500000 0.906250000 0.000000000
0.156250000 0.906250000 0.000000000
0.156250000 1.000000000 0.000000000
0.156250000 0.937500000 0.000000000
0.156250000 0.968750000 0.000000000
0.250000000 0.968750000 0.000000000
0.218750000 0.937500000 0.000000000
0.187500000 0.968750000 0.000000000
0.218750000 1.000000000 0.000000000
0.218750000 0.968750000 0.000000000
0.156250000 0.750000000 0.000000000
0.156250000 0.781250000 0.000000000
0.156250000 0.875000000 0.000000000
0.156250000 0.812500000 0.000000000
0.156250000 0.843750000 0.000000000
0.250000000 0.843750000 0.000000000
0.187500000 0.843750000 0.000000000
0.218750000 0.875000000 0.000000000
0.218750000 0.843750000 0.000000000
0.218750000 0.750000000 0.000000000
0.187500000 0.781250000 0.000000000
0.218750000 0.812500000 0.000000000
0.250000000 0.781250000 0.000000000
0.218750000 0.781250000 0.000000000
0.000000000 0.843750000 0.000000000
0.031250000 0.843750000 0.000000000
0.125000000 0.843750000 0.000000000
0.062500000 0.843750000 0.000000000
0.093750000 0.843750000 0.000000000
0.093750000 0.750000000 0.000000000
0.093750000 0.812500000 0.000000000
0.125000000 0.781250000 0.000000000
0.093750000 0.781250000 0.000000000
0.000000000 0.781250000 0.000000000
0.031250000 0.812500000 0.000000000
0.062500000 0.781250000 0.000000000
0.031250000 0.750000000 0.000000000
0.031250000 0.781250000 0.000000000
0.125000000 0.968750000 0.000000000
0.093750000 1.000000000 0.000000000
0.093750000 0.968750000 0.000000000
0.093750000 0.875000000 0.000000000
0.093750000 0.937500000 0.000000000
0.125000000 0.906250000 0.000000000
0.093750000 0.906250000 0.000000000
0.000000000 0.906250000 0.000000000
0.062500000 0.906250000 0.000000000
0.031250000 0.875000000 0.000000000
0.031250000 0.906250000 0.000000000
0.031250000 1.000000000 0.000000000
0.062500000 0.968750000 0.000000000
0.031250000 0.937500000 0.000000000
0.000000000 0.968750000 0.000000000
0.031250000 0.968750000 0.000000000
0.781250000 0.593750000 0.000000000
0.812500000 0.593750000 0.000000000
0.843750000 0.593750000 0.000000000
0.843750000 0.562500000 0.000000000
0.843750000 0.531250000 0.000000000
0.781250000 0.562500000 0.000000000
0.812500000 0.531250000 0.000000000
0.781250000 0.531250000 0.000000000
0.843750000 0.718750000 0.000000000
0.843750000 0.625000000 0.000000000
0.843750000 0.687500000 0.000000000
0.843750000 0.656250000 0.000000000
0.812500000 0.656250000 0.000000000
0.781250000 0.625000000 0.000000000
0.781250000 0.656250000 0.000000000
0.812500000 0.718750000 0.000000000
0.781250000 0.687500000 0.000000000
0.781250000 0.718750000 0.000000000
1.000000000 0.656250000 0.000000000
0.968750000 0.656250000 0.000000000
0.875000000 0.656250000 0.000000000
0.937500000 0.656250000 0.000000000
0.906250000 0.656250000 0.000000000
0.906250000 0.687500000 0.000000000
0.875000000 0.718750000 0.000000000
0.906250000 0.718750000 0.000000000
1.000000000 0.718750000 0.000000000
0.968750000 0.687500000 0.000000000
0.937500000 0.718750000 0.000000000
0.968750000 0.718750000 0.000000000
0.875000000 0.531250000 0.000000000
0.906250000 0.531250000 0.000000000
0.906250000 0.625000000 0.000000000
0.906250000 0.562500000 0.000000000
0.875000000 0.593750000 0.000000000
0.906250000 0.593750000 0.000000000
1.000000000 0.593750000 0.000000000
0.937500000 0.593750000 0.000000000
0.968750000 0.625000000 0.000000000
0.968750000 0.593750000 0.000000000
0.937500000 0.531250000 0.000000000
0.968750000 0.562500000 0.000000000
1.000000000 0.531250000 0.000000000
0.968750000 0.531250000 0.000000000
0.593750000 0.718750000 0.000000000
0.593750000 0.687500000 0.000000000
0.593750000 0.656250000 0.000000000
0.500000000 0.656250000 0.000000000
0.562500000 0.656250000 0.000000000
0.531250000 0.656250000 0.000000000
0.562500000 0.718750000 0.000000000
0.531250000 0.687500000 0.000000000
0.500000000 0.718750000 0.000000000
0.531250000 0.718750000 0.000000000
0.750000000 0.656250000 0.000000000
0.718750000 0.656250000 0.000000000
0.625000000 0.656250000 0.000000000
0.687500000 0.656250000 0.000000000
0.656250000 0.656250000 0.000000000
0.656250000 0.687500000 0.000000000
0.625000000 0.718750000 0.000000000
0.656250000 0.718750000 0.000000000
0.750000000 0.718750000 0.000000000
0.718750000 0.687500000 0.000000000
0.687500000 0.718750000 0.000000000
0.718750000 0.718750000 0.000000000
0.656250000 0.531250000 0.000000000
0.656250000 0.625000000 0.000000000
0.656250000 0.562500000 0.000000000
0.656250000 0.593750000 0.000000000
0.750000000 0.593750000 0.000000000
0.687500000 0.593750000 0.000000000
0.718750000 0.625000000 0.000000000
0.718750000 0.593750000 0.000000000
0.687500000 0.531250000 0.000000000
0.718750000 0.562500000 0.000000000
0.750000000 0.531250000 0.000000000
0.718750000 0.531250000 0.000000000
0.531250000 0.625000000 0.000000000
0.500000000 0.593750000 0.000000000
[...]
POINT_DATA 1089
SCALARS P_Mean float
LOOKUP_TABLE default
0.000000000
0.000000000
0.000000000
0.000000000
0.000000000
0.000000000
0.000000000
0.000000000
0.000000000
0.000000000
0.000000000
0.000000000
0.000000000
0.000000000
0.000000000
0.000000000
0.000000000
0.000000000
0.000000000
0.000000000
0.000000000
0.000000000
0.000000000
0.000000000
0.000000000
0.000000000
0.000000000
0.000000000
0.000000000
0.000000000
0.000000000
0.000000000
0.000000000
0.000000000
0.000000000
0.000000000
0.000000000
0.000000000
0.000000000
0.000000000
0.000000000
0.000000000
0.000000000
0.000000000
0.000000000
0.000000000
0.000000000
0.000000000
0.000000000
0.000000000
0.000000000
0.000000000
0.000000000
0.000000000
0.000000000
0.000000000
0.000000000
0.000000000
0.000000000
0.000000000
0.000000000
0.000000000
0.000000000
0.000000000
0.000000000
0.000000000
0.000000000
0.000000000
0.000000000
0.000000000
0.000000000
0.000000000
0.000000000
0.000000000
0.000000000
0.000000000
0.000000000
0.000000000
0.000000000
0.000000000
0.000000000
0.000000000
0.000000000
0.000000000
0.000000000
0.000000000
0.000000000
0.000000000
0.000000000
0.000000000
0.000000000
0.000000000
0.000000000
0.000000000
0.000000000
0.000000000
0.000000000
0.000000000
0.000000000
0.000000000
0.000000000
0.000000000
0.000000000
0.000000000
0.000000000
0.000000000
0.000000000
0.000000000
0.000000000
0.000000000
0.000000000
0.000000000
0.000000000
0.000000000
0.000000000
0.000000000
0.000000000
0.000000000
0.000000000
0.000000000
0.000000000
0.000000000
0.000000000
0.000000000
0.000000000
0.000000000
0.000000000
0.000000000
0.000000000
0.000000000
0.000000000
0.000000000
0.000000000
0.000000000
0.000000000
0.000000000
0.000000000
0.000000000
0.000000000
0.000000000
0.000000000
0.000000000
0.000000000
0.000000000
0.000000000
0.000000000
0.000000000
0.000000000
0.000000000
0.000000000
0.000000000
0.000000000
0.000000000
0.000000000
0.000000000
0.000000000
0.000000000
0.000000000
0.000000000
0.000000000
0.000000000
0.000000000
0.000000000
0.000000000
0.000000000
0.000000000
0.000000000
0.000000000
0.000000000
0.000000000
0.000000000
0.000000000
0.000000000
0.000000000
0.000000000
0.000000000
0.000000000
0.000000000
0.000000000
0.000000000
0.000000000
0.000000000
0.000000000
0.000000000
0.000000000
0.000000000
0.000000000
0.000000000
0.000000000
0.000000000
0.000000000
0.000000000
0.000000000
0.000000000
0.000000000
0.000000000
0.000000000
0.000000000
0.000000000
0.000000000
0.000000000
0.000000000
0.000000000
0.000000000
0.000000000
0.000000000
0.000000000
0.000000000
0.000000000
0.000000000
0.000000000
0.000000000
0.000000000
0.000000000
0.000000000
0.000000000
0.000000000
0.000000000
0.000000000
0.000000000
0.000000000
0.000000000
0.000000000
0.000000000
0.000000000
0.000000000
0.000000000
0.000000000
0.000000000
0.000000000
0.000000000
0.000000000
0.000000000
0.000000000
0.000000000
0.000000000
0.000000000
0.000000000
0.000000000
0.000000000
0.000000000
0.000000000
0.000000000
0.000000000
0.000000000
0.000000000
0.000000000
0.000000000
0.000000000
0.000000000
0.000000000
0.000000000
0.000000000
0.000000000
0.000000000
0.000000000
0.000000000
0.000000000
0.000000000
0.000000000
0.000000000
0.000000000
0.000000000
0.000000000
0.000000000
0.000000000
0.000000000
0.000000000
0.000000000
0.000000000
0.000000000
0.000000000
0.000000000
0.000000000
0.000000000
0.000000000
0.000000000
0.000000000
0.000000000
0.000000000
0.000000000
0.000000000
0.000000000
0.000000000
0.000000000
0.000000000
0.000000000
0.000000000
0.000000000
0.000000000
0.000000000
0.000000000
0.000000000
0.000000000
0.000000000
0.000000000
0.000000000
0.000000000
0.000000000
0.000000000
0.000000000
0.000000000
0.000000000
0.000000000
0.000000000
0.000000000
0.000000000
0.000000000
0.000000000
0.000000000
0.000000000
0.000000000
0.000000000
0.000000000
0.000000000
0.000000000
0.000000000
0.000000000
0.000000000
0.000000000
0.000000000
0.000000000
0.000000000
0.000000000
0.000000000
0.000000000
0.000000000
0.000000000
0.000000000
0.000000000
0.000000000
0.000000000
0.000000000
0.000000000
0.000000000
0.000000000
0.000000000
0.000000000
0.000000000
0.000000000
0.000000000
0.000000000
0.000000000
0.000000000
0.000000000
0.000000000
0.000000000
0.000000000
0.000000000
0.000000000
0.000000000
0.000000000
0.000000000
0.000000000
0.000000000
0.000000000
0.000000000
0.000000000
0.000000000
0.000000000
0.000000000
0.000000000
0.000000000
0.000000000
0.000000000
0.000000000
0.000000000
0.000000000
0.000000000
0.000000000
0.000000000
0.000000000
0.000000000
0.000000000
0.000000000
0.000000000
0.000000000
0.000000000
0.000000000
0.000000000
0.000000000
0.000000000
0.000000000
0.000000000
0.000000000
0.000000000
0.000000000
0.000000000
0.000000000
0.000000000
0.000000000
0.000000000
0.000000000
0.000000000
0.000000000
0.000000000
0.000000000
0.000000000
0.000000000
0.000000000
0.000000000
0.000000000
0.000000000
0.000000000
0.000000000
0.000000000
0.000000000
0.000000000
0.000000000
0.000000000
0.000000000
0.000000000
0.000000000
0.000000000
0.000000000
0.000000000
0.000000000
0.000000000
0.000000000
0.000000000
0.000000000
0.000000000
0.000000000
0.000000000
0.000000000
0.000000000
0.000000000
0.000000000
0.000000000
0.000000000
0.000000000
0.000000000
0.000000000
0.000000000
0.000000000
0.000000000
0.000000000
0.000000000
0.000000000
0.000000000
0.000000000
0.000000000
0.000000000
0.000000000
0.000000000
0.000000000
0.000000000
0.000000000
0.000000000
0.000000000
0.000000000
0.000000000
0.000000000
0.000000000
0.000000000
0.000000000
0.000000000
0.000000000
0.000000000
0.000000000
0.000000000
0.000000000
0.000000000
0.000000000
0.000000000
0.000000000
0.000000000
0.000000000
0.000000000
0.000000000
0.000000000
0.000000000
0.000000000
0.000000000
0.000000000
0.000000000
0.000000000
0.000000000
0.000000000
0.000000000
0.000000000
0.000000000
0.000000000
0.000000000
0.000000000
0.000000000
0.000000000
0.000000000
0.000000000
0.000000000
0.000000000
0.000000000
0.000000000
0.000000000
0.000000000
0.000000000
0.000000000
0.000000000
0.000000000
0.000000000
0.000000000
0.000000000
0.000000000
0.000000000
0.000000000
0.000000000
0.000000000
0.000000000
0.000000000
0.000000000
0.000000000
0.000000000
0.000000000
0.000000000
0.000000000
0.000000000
0.000000000
0.000000000
0.000000000
0.000000000
0.000000000
0.000000000
0.000000000
0.000000000
0.000000000
0.000000000
0.000000000
0.000000000
0.000000000
0.000000000
0.000000000
0.000000000
0.000000000
0.000000000
0.000000000
0.000000000
0.000000000
0.000000000
0.000000000
0.000000000
0.000000000
0.000000000
0.000000000
0.000000000
0.000000000
0.000000000
0.000000000
0.000000000
0.000000000
0.000000000
0.000000000
0.000000000
0.000000000
0.000000000
0.000000000
0.000000000
0.000000000
0.000000000
0.000000000
0.000000000
0.000000000
0.000000000
0.000000000
0.000000000
0.000000000
0.000000000
0.000000000
0.000000000
0.000000000
0.000000000
0.000000000
0.000000000
0.000000000
0.000000000
0.000000000
0.000000000
0.000000000
0.000000000
0.000000000
0.000000000
0.000000000
0.000000000
0.000000000
0.000000000
0.000000000
0.000000000
0.000000000
0.000000000
0.000000000
0.000000000
0.000000000
0.000000000
0.000000000
0.000000000
0.000000000
0.000000000
0.000000000
0.000000000
0.000000000
0.000000000
0.000000000
0.000000000
0.000000000
0.000000000
0.000000000
0.000000000
0.000000000
0.000000000
0.000000000
0.000000000
0.000000000
0.000000000
0.000000000
0.000000000
0.000000000
0.000000000
0.000000000
0.000000000
0.000000000
0.000000000
0.000000000
0.000000000
0.000000000
0.000000000
0.000000000
0.000000000
0.000000000
0.000000000
0.000000000
0.000000000
0.000000000
0.000000000
0.000000000
0.000000000
0.000000000
0.000000000
0.000000000
0.000000000
0.000000000
0.000000000
0.000000000
0.000000000
0.000000000
0.000000000
0.000000000
0.000000000
0.000000000
0.000000000
0.000000000
0.000000000
0.000000000
0.000000000
0.000000000
0.000000000
0.000000000
0.000000000
0.000000000
0.000000000
0.000000000
0.000000000
0.000000000
0.000000000
0.000000000
0.000000000
0.000000000
0.000000000
0.000000000
0.000000000
0.000000000
0.000000000
0.000000000
0.000000000
0.000000000
0.000000000
0.000000000
0.000000000
0.000000000
0.000000000
0.000000000
0.000000000
0.000000000
0.000000000
0.000000000
0.000000000
0.000000000
0.000000000
0.000000000
0.000000000
0.000000000
0.000000000
0.000000000
0.000000000
0.000000000
0.000000000
0.000000000
0.000000000
0.000000000
0.000000000
0.000000000
0.000000000
0.000000000
0.000000000
0.000000000
0.000000000
0.000000000
0.000000000
0.000000000
0.000000000
0.000000000
0.000000000
0.000000000
0.000000000
0.000000000
0.000000000
0.000000000
0.000000000
0.000000000
0.000000000
0.000000000
0.000000000
0.000000000
0.000000000
0.000000000
0.000000000
0.000000000
0.000000000
0.000000000
0.000000000
0.000000000
0.000000000
0.000000000
0.000000000
0.000000000
0.000000000
0.000000000
0.000000000
0.000000000
0.000000000
0.000000000
0.000000000
0.000000000
0.000000000
0.000000000
0.000000000
0.000000000
0.000000000
0.000000000
0.000000000
0.000000000
0.000000000
0.000000000
0.000000000
0.000000000
0.000000000
0.000000000
0.000000000
0.000000000
0.000000000
0.000000000
0.000000000
0.000000000
0.000000000
0.000000000
0.000000000
0.000000000
0.000000000
0.000000000
0.000000000
0.000000000
0.000000000
0.000000000
0.000000000
0.000000000
0.000000000
0.000000000
0.000000000
0.000000000
0.000000000
0.000000000
0.000000000
0.000000000
0.000000000
0.000000000
0.000000000
0.000000000
0.000000000
0.000000000
0.000000000
0.000000000
0.000000000
0.000000000
0.000000000
0.000000000
0.000000000
0.000000000
0.000000000
0.000000000
0.000000000
0.000000000
0.000000000
0.000000000
0.000000000
0.000000000
0.000000000
0.000000000
0.000000000
0.000000000
0.000000000
0.000000000
0.000000000
0.000000000
0.000000000
0.000000000
0.000000000
0.000000000
0.000000000
0.000000000
0.000000000
0.000000000
0.000000000
0.000000000
0.000000000
0.000000000
0.000000000
0.000000000
0.000000000
0.000000000
0.000000000
0.000000000
0.000000000
0.000000000
0.000000000
0.000000000
0.000000000
0.000000000
0.000000000
0.000000000
0.000000000
0.000000000
0.000000000
0.000000000
0.000000000
0.000000000
0.000000000
0.000000000
0.000000000
0.000000000
0.000000000
0.000000000
0.000000000
0.000000000
0.000000000
0.000000000
0.000000000
0.000000000
0.000000000
0.000000000
0.000000000
0.000000000
0.000000000
0.000000000
0.000000000
0.000000000
0.000000000
0.000000000
0.000000000
0.000000000
0.000000000
0.000000000
0.000000000
0.000000000
0.000000000
0.000000000
0.000000000
0.000000000
0.000000000
0.000000000
0.000000000
0.000000000
0.000000000
0.000000000
0.000000000
0.000000000
0.000000000
0.000000000
0.000000000
0.000000000
0.000000000
0.000000000
0.000000000
0.000000000
0.000000000
0.000000000
0.000000000
0.000000000
0.000000000
0.000000000
0.000000000
0.000000000
0.000000000
0.000000000
0.000000000
0.000000000
0.000000000
0.000000000
0.000000000
0.000000000
0.000000000
0.000000000
0.000000000
0.000000000
0.000000000
0.000000000
0.000000000
0.000000000
0.000000000
0.000000000
0.000000000
0.000000000
0.000000000
0.000000000
0.000000000
0.000000000
0.000000000
0.000000000
0.000000000
0.000000000
0.000000000
0.000000000
0.000000000
0.000000000
0.000000000
0.000000000
0.000000000
0.000000000
0.000000000
0.000000000
0.000000000
0.000000000
0.000000000
0.000000000
0.000000000
0.000000000
0.000000000
0.000000000
0.000000000
0.000000000
0.000000000
0.000000000
0.000000000
0.000000000
0.000000000
0.000000000
0.000000000
0.000000000
0.000000000
0.000000000
0.000000000
0.000000000
0.000000000
0.000000000
0.000000000
0.000000000
0.000000000
0.000000000
0.000000000
0.000000000
0.000000000
0.000000000
0.000000000
0.000000000
0.000000000
0.000000000
0.000000000
0.000000000
0.000000000
0.000000000
0.000000000
0.000000000
0.000000000
0.000000000
0.000000000
0.000000000
0.000000000
0.000000000
0.000000000
0.000000000
0.000000000
0.000000000
0.000000000
0.000000000
0.000000000
0.000000000
0.000000000
0.000000000
0.000000000
0.000000000
0.000000000
0.000000000
0.000000000
0.000000000
0.000000000
0.000000000
0.000000000
0.000000000
0.000000000
0.000000000
0.000000000
0.000000000
0.000000000
0.000000000
0.000000000
0.000000000
0.000000000
0.000000000
0.000000000
0.000000000
0.000000000
0.000000000
0.000000000
0.000000000
0.000000000
0.000000000
0.000000000
0.000000000
0.000000000
0.000000000
0.000000000
0.000000000
0.000000000
0.000000000
0.000000000
0.000000000
0.000000000
0.000000000
0.000000000
0.000000000
0.000000000
0.000000000
0.000000000
0.000000000
0.000000000
0.000000000
0.000000000
0.000000000
0.000000000
0.000000000
0.000000000
0.000000000
0.000000000
0.000000000
0.000000000
0.000000000
0.000000000
0.000000000
0.000000000
0.000000000
0.000000000
0.000000000
0.000000000
0.000000000
0.000000000
0.000000000
0.000000000
0.000000000
0.000000000
0.000000000
0.000000000
0.000000000
0.000000000
0.000000000
0.000000000
0.000000000
0.000000000
0.000000000
0.000000000
0.000000000
0.000000000
0.000000000
0.000000000
0.000000000
0.000000000
0.000000000
0.000000000
0.000000000
0.000000000
0.000000000
0.000000000
0.000000000


SCALARS U_Mean1 float
LOOKUP_TABLE default
-0.958189812
-1.006889272
-1.009303743
-0.985292920
-0.959477394
-0.933770544
-0.955530448
-0.907610750
-1.084148131
-1.031334876
-1.068870976
-1.051233242
-1.050275711
-0.980688545
-1.001108673
-1.084524861
-1.019317560
-1.035210891
0.000000000
-0.000000000
-0.474698883
-0.000000000
-0.004837167
-0.004912729
-0.489006556
-0.004977822
0.000000000
-0.000000000
-0.000000000
-0.000000000
-0.434552429
-0.004440314
-0.004751554
-0.004552435
-0.456386454
-0.004656428
0.000000000
-0.000000000
-0.000000000
-0.000000000
-0.000000000
-0.000000000
0.000000000
-0.000000000
-0.666231653
-0.651362742
-0.634994043
-0.565249613
-0.494059237
-0.595719972
-0.509444042
-0.523695798
-0.947954243
-0.891292617
-0.702858682
-0.831358835
-0.768437391
-0.785623334
-0.734789539
-0.800981008
-0.981806081
-0.909098080
-0.864429368
-0.924800130
-0.683671168
-0.749519826
-0.706988213
-0.728990152
-0.905672559
-0.790818134
-0.871485534
-0.849804873
-0.743883467
-0.826402122
-0.856099777
-0.801448861
-0.477621262
-0.460222993
-0.664641797
-0.529853477
-0.617214726
-0.598132305
-0.577870520
-0.621118533
-0.556566827
-0.441968712
-0.490386727
-0.422972225
-0.004002145
-0.003760922
-0.003507354
0.000000000
-0.000000000
-0.000000000
-0.000000000
-0.000000000
0.000000000
-0.000000000
-0.814438558
-0.825950075
-0.354053530
-0.835260040
-0.808488562
-0.868686230
-0.404730710
-0.925930916
-0.938325319
-0.889343645
-0.958428838
-0.949629777
-0.544969619
-0.745650438
-0.613492572
-0.680523447
-0.679531577
-0.701054976
-0.759781962
-0.691214303
-0.558914386
-0.620658003
-0.536748873
-0.548552711
-0.000000000
0.000000000
-0.000000000
-0.298845713
-0.000000000
-0.003242733
-0.002968510
-0.002686272
-0.240361000
-0.002397713
0.000000000
-0.000000000
-0.000000000
-0.000000000
-0.005032151
-0.005075554
-0.005106625
-0.004926117
0.000000000
-0.000000000
-0.000000000
-0.000000000
-0.000000000
-0.000000000
0.000000000
-0.000000000
-0.979953696
-1.030532457
-0.483609680
-1.077187767
-1.074588300
-1.096994619
-1.114953337
-0.499017675
-1.107371278
-1.006522661
-1.068115896
-1.108927417
-1.048714806
-1.059787118
0.000000000
-0.000000000
-0.468451303
-0.000000000
-0.004632754
-0.004229904
-0.004640267
-0.449884307
-0.004443272
0.000000000
-0.000000000
-0.000000000
-0.000000000
-0.000000000
-0.000000000
0.000000000
-0.000000000
-0.002093307
-0.000000000
-0.002156151
-0.000019374
0.000000000
-0.000000000
-0.000000000
-0.000000000
0.000000000
-0.000000000
-0.000000000
0.000000000
-0.000000000
-0.320334931
-0.297518273
-0.264185808
-0.219537168
-0.174472517
-0.270248926
-0.200429550
-0.219615267
-0.434841663
-0.308225014
-0.393729645
-0.351466647
-0.391795756
-0.369642522
-0.417948710
-0.481627390
-0.465040666
-0.510717861
0.000000000
-0.000000000
-0.142594759
-0.000000000
-0.001308060
-0.001477086
-0.177651718
-0.001641950
0.000000000
-0.000000000
-0.000000000
-0.000000000
-0.068423614
-0.000603922
-0.001135533
-0.000782748
-0.105984737
-0.000960193
0.000000000
-0.000000000
-0.000000000
-0.000000000
-0.000000000
-0.000000000
0.000000000
-0.000000000
-0.690046988
-0.636508639
-0.580805359
-0.659210102
-0.607587951
-0.633786397
-0.719222027
-0.691928915
-0.775132989
-0.747654656
-0.444530816
-0.471533674
-0.553628145
-0.498821097
-0.526241138
-0.579228687
-0.660340901
-0.630310522
-0.540194768
-0.521622122
-0.600154189
-0.570058381
-0.300429641
-0.471593182
-0.358397303
-0.415550792
-0.343603045
-0.391332099
-0.420015657
-0.367306890
-0.279760937
-0.313659716
-0.239258399
-0.259336966
-0.573515545
-0.534369590
-0.511435073
-0.439823238
-0.487924316
-0.523204776
-0.463999981
-0.403505549
-0.321232978
-0.342052968
-0.403354774
-0.447889301
-0.362765584
-0.383242793
-0.003357288
-0.003502078
-0.003646005
0.000000000
-0.000000000
-0.000000000
-0.000000000
-0.000000000
0.000000000
-0.000000000
-0.679264756
-0.725895060
-0.354701367
-0.769814828
-0.778236093
-0.745674468
-0.325817091
-0.713003365
-0.616638300
-0.693547819
-0.703316821
-0.661178026
-0.932050275
-0.903218680
-0.810486854
-0.873199399
-0.842214481
-0.741181528
-0.835205581
-0.758018409
-0.789704600
-0.879908421
-0.897720290
-0.820732116
-0.800709256
-0.850875243
-0.000000000
0.000000000
-0.000000000
-0.382957131
-0.000000000
-0.003788192
-0.003927722
-0.004320882
-0.004063650
-0.409831585
-0.004195019
0.000000000
-0.000000000
-0.000000000
-0.000000000
-0.000000000
-0.001802025
-0.001956718
-0.002104917
-0.002158660
0.000000000
-0.000000000
-0.000000000
-0.000000000
-0.000000000
-0.000000000
0.000000000
-0.000000000
-0.680410200
-0.648065941
-0.230925694
-0.615948431
-0.560651338
-0.474640540
-0.549552779
-0.210604928
-0.512975602
-0.628971942
-0.637297160
-0.565546422
-0.554793927
-0.597098216
0.000000000
-0.000000000
-0.257575637
-0.000000000
-0.002674422
-0.003212455
-0.002924822
-0.296986308
-0.003068334
0.000000000
-0.000000000
-0.000000000
-0.000000000
-0.000000000
-0.000000000
0.000000000
-0.000000000
-0.001110134
-0.000000000
-0.000999649
-0.000009465
0.000000000
-0.000000000
-0.000000000
-0.000000000
0.000000000
-0.000000000
-0.000000000
0.000000000
-0.000000000
0.250633130
0.301031899
0.334782631
0.333045212
0.330624076
0.246315494
0.294347945
0.241406891
0.335848752
0.335883177
0.336368082
0.336395408
0.305262603
0.254390568
0.257620296
0.307376594
0.260355236
0.262627553
0.000000000
0.000000000
0.164282746
0.000000000
0.001786947
0.001777207
0.163013939
0.001765146
0.000000000
0.000000000
0.000000000
0.000000000
0.163647941
0.001797534
0.001794109
0.001799658
0.164557794
0.001798433
0.000000000
0.000000000
0.000000000
0.000000000
0.000000000
0.000000000
0.000000000
0.000000000
-0.040723541
-0.053493287
-0.066593446
-0.241954182
-0.124726132
-0.183282359
-0.095030014
-0.166370777
-0.204608647
-0.149748427
0.207752964
0.155923558
-0.009183811
0.102335211
0.047215885
0.056599709
0.012907971
0.065611950
0.215851358
0.161818043
0.117149331
0.167297257
0.006329572
0.037477333
0.017012469
0.027402662
0.197813943
0.085962105
0.149603967
0.142849680
0.068068648
0.135652136
0.185863804
0.128004637
-0.200404672
-0.279985620
-0.217653439
-0.032550129
-0.155407415
-0.079977200
-0.093594079
-0.107390372
-0.056907400
-0.121309605
-0.317874446
-0.234939732
-0.186521717
-0.252171230
0.000789469
0.000625401
0.000457134
0.000000000
0.000000000
0.000000000
0.000000000
0.000000000
0.000000000
0.000000000
0.074237279
0.082461698
0.043637393
0.090246933
0.093650728
0.136183335
0.078738093
0.177631538
0.172370596
0.130381321
0.181280571
0.177046439
-0.129188645
-0.083883700
0.050198739
-0.038755136
0.006002335
-0.028327039
-0.004802398
0.033483985
-0.016342379
-0.168669885
-0.102268117
-0.066797046
-0.133487100
-0.117651149
0.000000000
0.000000000
0.000000000
0.007017053
0.000000000
0.000285288
0.000110515
-0.000424450
-0.000066505
-0.030543487
-0.000245067
0.000000000
0.000000000
-0.000000000
-0.000000000